<VTKFile byte_order="LittleEndian" type="PolyData" version="1.0">
  <PolyData>
    <Piece NumberOfLines="1964" NumberOfPoints="1000">
      <Points>
        <DataArray Name ="coords" NumberOfComponents="3" type="Float64">0.000005	 0.000040	 0.000075	0.000110	 0.000145	 0.000180	0.000216	 0.000251	 0.000286	0.000321	 0.000005	 0.000040	0.000075	 0.000110	 0.000145	0.000180	 0.000216	 0.000251	0.000286	 0.000321	 0.000005	0.000040	 0.000075	 0.000110	0.000145	 0.000180	 0.000216	0.000251	 0.000286	 0.000321	0.000005	 0.000040	 0.000075	0.000110	 0.000145	 0.000180	0.000216	 0.000251	 0.000286	0.000321	 0.000005	 0.000040	0.000075	 0.000110	 0.000145	0.000180	 0.000216	 0.000251	0.000286	 0.000321	 0.000005	0.000040	 0.000075	 0.000110	0.000145	 0.000180	 0.000216	0.000251	 0.000286	 0.000321	0.000005	 0.000040	 0.000075	0.000110	 0.000145	 0.000180	0.000216	 0.000251	 0.000286	0.000321	 0.000005	 0.000040	0.000075	 0.000110	 0.000145	0.000180	 0.000216	 0.000251	0.000286	 0.000321	 0.000005	0.000040	 0.000075	 0.000110	0.000145	 0.000180	 0.000216	0.000251	 0.000286	 0.000321	0.000005	 0.000040	 0.000075	0.000110	 0.000145	 0.000180	0.000216	 0.000251	 0.000286	0.000321	 0.000005	 0.000040	0.000075	 0.000110	 0.000145	0.000180	 0.000216	 0.000251	0.000286	 0.000321	 0.000005	0.000040	 0.000075	 0.000110	0.000145	 0.000180	 0.000216	0.000251	 0.000286	 0.000321	0.000005	 0.000040	 0.000075	0.000110	 0.000145	 0.000180	0.000216	 0.000251	 0.000286	0.000321	 0.000005	 0.000040	0.000075	 0.000110	 0.000145	0.000180	 0.000216	 0.000251	0.000286	 0.000321	 0.000005	0.000040	 0.000075	 0.000110	0.000145	 0.000180	 0.000216	0.000251	 0.000286	 0.000321	0.000005	 0.000040	 0.000075	0.000110	 0.000145	 0.000180	0.000216	 0.000251	 0.000286	0.000321	 0.000005	 0.000040	0.000075	 0.000110	 0.000145	0.000180	 0.000216	 0.000251	0.000286	 0.000321	 0.000005	0.000040	 0.000075	 0.000110	0.000145	 0.000180	 0.000216	0.000251	 0.000286	 0.000321	0.000005	 0.000040	 0.000075	0.000110	 0.000145	 0.000180	0.000216	 0.000251	 0.000286	0.000321	 0.000005	 0.000040	0.000075	 0.000110	 0.000145	0.000180	 0.000216	 0.000251	0.000286	 0.000321	 0.000005	0.000040	 0.000075	 0.000110	0.000145	 0.000180	 0.000216	0.000251	 0.000286	 0.000321	0.000005	 0.000040	 0.000075	0.000110	 0.000145	 0.000180	0.000216	 0.000251	 0.000286	0.000321	 0.000005	 0.000040	0.000075	 0.000110	 0.000145	0.000180	 0.000216	 0.000251	0.000286	 0.000321	 0.000005	0.000040	 0.000075	 0.000110	0.000145	 0.000180	 0.000216	0.000251	 0.000286	 0.000321	0.000005	 0.000040	 0.000075	0.000110	 0.000145	 0.000180	0.000216	 0.000251	 0.000286	0.000321	 0.000005	 0.000040	0.000075	 0.000110	 0.000145	0.000180	 0.000216	 0.000251	0.000286	 0.000321	 0.000005	0.000040	 0.000075	 0.000110	0.000145	 0.000180	 0.000216	0.000251	 0.000286	 0.000321	0.000005	 0.000040	 0.000075	0.000110	 0.000145	 0.000180	0.000216	 0.000251	 0.000286	0.000321	 0.000005	 0.000040	0.000075	 0.000110	 0.000145	0.000180	 0.000216	 0.000251	0.000286	 0.000321	 0.000005	0.000040	 0.000075	 0.000110	0.000145	 0.000180	 0.000216	0.000251	 0.000286	 0.000321	0.000005	 0.000040	 0.000075	0.000110	 0.000145	 0.000180	0.000216	 0.000251	 0.000286	0.000321	 0.000005	 0.000040	0.000075	 0.000110	 0.000145	0.000180	 0.000216	 0.000251	0.000286	 0.000321	 0.000005	0.000040	 0.000075	 0.000110	0.000145	 0.000180	 0.000216	0.000251	 0.000286	 0.000321	0.000005	 0.000040	 0.000075	0.000110	 0.000145	 0.000180	0.000216	 0.000251	 0.000286	0.000321	 0.000005	 0.000040	0.000075	 0.000110	 0.000145	0.000180	 0.000216	 0.000251	0.000286	 0.000321	 0.000005	0.000040	 0.000075	 0.000110	0.000145	 0.000180	 0.000216	0.000251	 0.000286	 0.000321	0.000005	 0.000040	 0.000075	0.000110	 0.000145	 0.000180	0.000216	 0.000251	 0.000286	0.000321	 0.000005	 0.000040	0.000075	 0.000110	 0.000145	0.000180	 0.000216	 0.000251	0.000286	 0.000321	 0.000005	0.000040	 0.000075	 0.000110	0.000145	 0.000180	 0.000216	0.000251	 0.000286	 0.000321	0.000005	 0.000040	 0.000075	0.000110	 0.000145	 0.000180	0.000216	 0.000251	 0.000286	0.000321	 0.000005	 0.000040	0.000075	 0.000110	 0.000145	0.000180	 0.000216	 0.000251	0.000286	 0.000321	 0.000005	0.000040	 0.000075	 0.000110	0.000145	 0.000180	 0.000216	0.000251	 0.000286	 0.000321	0.000005	 0.000040	 0.000075	0.000110	 0.000145	 0.000180	0.000216	 0.000251	 0.000286	0.000321	 0.000005	 0.000040	0.000075	 0.000110	 0.000145	0.000180	 0.000216	 0.000251	0.000286	 0.000321	 0.000005	0.000040	 0.000075	 0.000110	0.000145	 0.000180	 0.000216	0.000251	 0.000286	 0.000321	0.000005	 0.000040	 0.000075	0.000110	 0.000145	 0.000180	0.000216	 0.000251	 0.000286	0.000321	 0.000005	 0.000040	0.000075	 0.000110	 0.000145	0.000180	 0.000216	 0.000251	0.000286	 0.000321	 0.000005	0.000040	 0.000075	 0.000110	0.000145	 0.000180	 0.000216	0.000251	 0.000286	 0.000321	0.000005	 0.000040	 0.000075	0.000110	 0.000145	 0.000180	0.000216	 0.000251	 0.000286	0.000321	 0.000005	 0.000040	0.000075	 0.000110	 0.000145	0.000180	 0.000216	 0.000251	0.000286	 0.000321	 0.000005	0.000040	 0.000075	 0.000110	0.000145	 0.000180	 0.000216	0.000251	 0.000286	 0.000321	0.000005	 0.000040	 0.000075	0.000110	 0.000145	 0.000180	0.000216	 0.000251	 0.000286	0.000321	 0.000005	 0.000040	0.000075	 0.000110	 0.000145	0.000180	 0.000216	 0.000251	0.000286	 0.000321	 0.000005	0.000040	 0.000075	 0.000110	0.000145	 0.000180	 0.000216	0.000251	 0.000286	 0.000321	0.000005	 0.000040	 0.000075	0.000110	 0.000145	 0.000180	0.000216	 0.000251	 0.000286	0.000321	 0.000005	 0.000040	0.000075	 0.000110	 0.000145	0.000180	 0.000216	 0.000251	0.000286	 0.000321	 0.000005	0.000040	 0.000075	 0.000110	0.000145	 0.000180	 0.000216	0.000251	 0.000286	 0.000321	0.000005	 0.000040	 0.000075	0.000110	 0.000145	 0.000180	0.000216	 0.000251	 0.000286	0.000321	 0.000005	 0.000040	0.000075	 0.000110	 0.000145	0.000180	 0.000216	 0.000251	0.000286	 0.000321	 0.000005	0.000040	 0.000075	 0.000110	0.000145	 0.000180	 0.000216	0.000251	 0.000286	 0.000321	0.000005	 0.000040	 0.000075	0.000110	 0.000145	 0.000180	0.000216	 0.000251	 0.000286	0.000321	 0.000005	 0.000040	0.000075	 0.000110	 0.000145	0.000180	 0.000216	 0.000251	0.000286	 0.000321	 0.000005	0.000040	 0.000075	 0.000110	0.000145	 0.000180	 0.000216	0.000251	 0.000286	 0.000321	0.000005	 0.000040	 0.000075	0.000110	 0.000145	 0.000180	0.000216	 0.000251	 0.000286	0.000321	 0.000005	 0.000040	0.000075	 0.000110	 0.000145	0.000180	 0.000216	 0.000251	0.000286	 0.000321	 0.000005	0.000040	 0.000075	 0.000110	0.000145	 0.000180	 0.000216	0.000251	 0.000286	 0.000321	0.000005	 0.000040	 0.000075	0.000110	 0.000145	 0.000180	0.000216	 0.000251	 0.000286	0.000321	 0.000005	 0.000040	0.000075	 0.000110	 0.000145	0.000180	 0.000216	 0.000251	0.000286	 0.000321	 0.000005	0.000040	 0.000075	 0.000110	0.000145	 0.000180	 0.000216	0.000251	 0.000286	 0.000321	0.000005	 0.000040	 0.000075	0.000110	 0.000145	 0.000180	0.000216	 0.000251	 0.000286	0.000321	 0.000005	 0.000040	0.000075	 0.000110	 0.000145	0.000180	 0.000216	 0.000251	0.000286	 0.000321	 0.000005	0.000040	 0.000075	 0.000110	0.000145	 0.000180	 0.000216	0.000251	 0.000286	 0.000321	0.000005	 0.000040	 0.000075	0.000110	 0.000145	 0.000180	0.000216	 0.000251	 0.000286	0.000321	 0.000005	 0.000040	0.000075	 0.000110	 0.000145	0.000180	 0.000216	 0.000251	0.000286	 0.000321	 0.000005	0.000040	 0.000075	 0.000110	0.000145	 0.000180	 0.000216	0.000251	 0.000286	 0.000321	0.000005	 0.000040	 0.000075	0.000110	 0.000145	 0.000180	0.000216	 0.000251	 0.000286	0.000321	 0.000005	 0.000040	0.000075	 0.000110	 0.000145	0.000180	 0.000216	 0.000251	0.000286	 0.000321	 0.000005	0.000040	 0.000075	 0.000110	0.000145	 0.000180	 0.000216	0.000251	 0.000286	 0.000321	0.000005	 0.000040	 0.000075	0.000110	 0.000145	 0.000180	0.000216	 0.000251	 0.000286	0.000321	 0.000005	 0.000040	0.000075	 0.000110	 0.000145	0.000180	 0.000216	 0.000251	0.000286	 0.000321	 0.000005	0.000040	 0.000075	 0.000110	0.000145	 0.000180	 0.000216	0.000251	 0.000286	 0.000321	0.000005	 0.000040	 0.000075	0.000110	 0.000145	 0.000180	0.000216	 0.000251	 0.000286	0.000321	 0.000005	 0.000040	0.000075	 0.000110	 0.000145	0.000180	 0.000216	 0.000251	0.000286	 0.000321	 0.000005	0.000040	 0.000075	 0.000110	0.000145	 0.000180	 0.000216	0.000251	 0.000286	 0.000321	0.000005	 0.000040	 0.000075	0.000110	 0.000145	 0.000180	0.000216	 0.000251	 0.000286	0.000321	 0.000005	 0.000040	0.000075	 0.000110	 0.000145	0.000180	 0.000216	 0.000251	0.000286	 0.000321	 0.000005	0.000040	 0.000075	 0.000110	0.000145	 0.000180	 0.000216	0.000251	 0.000286	 0.000321	0.000005	 0.000040	 0.000075	0.000110	 0.000145	 0.000180	0.000216	 0.000251	 0.000286	0.000321	 0.000005	 0.000040	0.000075	 0.000110	 0.000145	0.000180	 0.000216	 0.000251	0.000286	 0.000321	 0.000005	0.000040	 0.000075	 0.000110	0.000145	 0.000180	 0.000216	0.000251	 0.000286	 0.000321	0.000005	 0.000040	 0.000075	0.000110	 0.000145	 0.000180	0.000216	 0.000251	 0.000286	0.000321	 0.000005	 0.000040	0.000075	 0.000110	 0.000145	0.000180	 0.000216	 0.000251	0.000286	 0.000321	 0.000005	0.000040	 0.000075	 0.000110	0.000145	 0.000180	 0.000216	0.000251	 0.000286	 0.000321	0.000005	 0.000040	 0.000075	0.000110	 0.000145	 0.000180	0.000216	 0.000251	 0.000286	0.000321	 0.000005	 0.000040	0.000075	 0.000110	 0.000145	0.000180	 0.000216	 0.000251	0.000286	 0.000321	 0.000005	0.000040	 0.000075	 0.000110	0.000145	 0.000180	 0.000216	0.000251	 0.000286	 0.000321	0.000005	 0.000040	 0.000075	0.000110	 0.000145	 0.000180	0.000216	 0.000251	 0.000286	0.000321	 0.000005	 0.000040	0.000075	 0.000110	 0.000145	0.000180	 0.000216	 0.000251	0.000286	 0.000321	 0.000005	0.000040	 0.000075	 0.000110	0.000145	 0.000180	 0.000216	0.000251	 0.000286	 0.000321	0.000005	 0.000040	 0.000075	0.000110	 0.000145	 0.000180	0.000216	 0.000251	 0.000286	0.000321	 0.000005	 0.000005	0.000005	 0.000005	 0.000005	0.000005	 0.000005	 0.000005	0.000005	 0.000005	 0.000040	0.0000
[...]
<PointData>
<DataArray Name="pore.Radius" NumberOfComponents="1" type="Int32">1.416208e-05	9.071464e-06	1.173080e-05	1.352097e-05	8.089105e-06	6.700585e-06	1.156011e-05	1.030961e-05	1.171468e-05	1.163877e-05	1.738593e-05	1.152749e-05	1.093885e-05	1.164050e-05	1.453256e-05	7.175087e-06	1.476775e-05	8.290435e-06	1.189778e-05	1.181109e-05	1.234457e-05	1.476973e-05	1.457398e-05	8.042660e-06	1.035857e-05	1.421692e-05	1.338355e-05	1.390579e-05	7.843335e-06	8.615635e-06	1.250517e-05	1.054800e-05	8.104413e-06	1.440815e-05	1.542512e-05	1.081119e-05	1.283489e-05	1.225854e-05	1.175428e-05	8.264082e-06	1.024037e-05	1.017739e-05	7.783978e-06	1.202341e-05	1.559123e-05	1.154758e-05	1.201910e-05	1.377388e-05	1.075873e-05	8.264082e-06	1.089461e-05	1.367024e-05	7.893076e-06	9.377666e-06	1.941616e-05	1.268908e-05	1.063775e-05	1.040890e-05	7.854424e-06	1.062518e-05	1.139829e-05	1.059541e-05	9.639626e-06	8.623200e-06	1.274026e-05	9.898455e-06	1.007406e-05	8.794374e-06	1.413586e-05	8.100315e-06	1.266109e-05	8.988739e-06	8.422802e-06	1.038632e-05	1.763660e-05	9.493263e-06	1.416174e-05	1.091882e-05	1.342500e-05	1.314438e-05	1.186528e-05	9.337445e-06	9.938328e-06	8.018640e-06	1.341159e-05	1.518224e-05	9.744780e-06	1.383985e-05	1.408615e-05	8.752247e-06	1.511297e-05	1.465217e-05	1.157528e-05	1.145604e-05	1.535962e-05	1.201926e-05	8.661038e-06	1.045684e-05	8.415774e-06	9.490578e-06	1.220174e-05	1.081626e-05	9.694840e-06	9.127822e-06	9.246777e-06	1.552736e-05	9.031795e-06	1.100354e-05	8.409006e-06	9.338963e-06	1.091394e-05	1.376392e-05	1.679386e-05	9.086949e-06	1.038152e-05	6.621181e-06	8.118138e-06	1.118421e-05	7.524886e-06	1.219694e-05	9.090566e-06	6.981810e-06	9.305565e-06	9.305565e-06	1.603183e-05	1.278557e-05	9.303844e-06	1.398978e-05	9.959726e-06	1.951858e-05	8.683414e-06	1.150263e-05	1.115570e-05	9.627532e-06	1.197562e-05	1.005403e-05	8.149879e-06	1.222920e-05	7.674621e-06	6.786102e-06	9.737494e-06	1.228087e-05	1.378803e-05	1.166925e-05	1.617716e-05	1.449972e-05	1.031750e-05	6.424452e-06	7.920923e-06	1.073505e-05	1.588735e-05	1.253654e-05	1.056831e-05	7.321273e-06	1.387714e-05	1.285883e-05	1.119895e-05	1.180889e-05	1.049730e-05	1.083192e-05	1.424239e-05	1.068265e-05	1.475694e-05	1.062510e-05	1.170323e-05	1.104183e-05	1.053417e-05	1.413569e-05	1.121427e-05	9.993263e-06	1.086141e-05	1.267099e-05	1.193895e-05	1.062624e-05	1.393639e-05	1.337301e-05	8.506362e-06	1.063093e-05	8.225604e-06	1.179910e-05	1.156607e-05	1.105054e-05	1.120194e-05	9.871966e-06	9.615189e-06	1.585370e-05	8.872774e-06	6.739727e-06	1.319018e-05	7.790424e-06	1.174076e-05	1.184503e-05	1.536740e-05	1.114922e-05	8.534920e-06	1.093670e-05	1.182564e-05	1.149651e-05	1.215923e-05	9.522403e-06	1.180703e-05	1.534157e-05	1.118331e-05	1.349485e-05	1.403807e-05	1.597405e-05	1.390155e-05	1.077841e-05	1.265265e-05	1.087436e-05	1.178308e-05	1.223505e-05	1.176203e-05	1.561083e-05	9.584770e-06	1.428752e-05	1.601280e-05	1.123301e-05	1.146724e-05	1.344848e-05	1.007859e-05	1.050433e-05	9.986136e-06	1.640953e-05	1.471924e-05	1.392533e-05	8.445136e-06	8.004741e-06	1.515310e-05	1.320436e-05	8.966754e-06	1.077007e-05	1.185829e-05	1.205905e-05	1.330896e-05	1.115463e-05	9.006692e-06	1.190359e-05	9.897445e-06	1.095265e-05	1.157568e-05	1.133267e-05	8.363618e-06	8.402769e-06	1.134166e-05	1.569588e-05	9.306580e-06	1.018240e-05	1.466375e-05	1.204298e-05	1.470952e-05	9.956711e-06	9.246150e-06	8.251561e-06	1.118481e-05	1.285243e-05	9.638277e-06	1.766150e-05	1.391591e-05	1.350606e-05	1.200288e-05	1.513286e-05	9.718350e-06	8.629989e-06	9.214901e-06	9.638236e-06	1.148830e-05	1.007777e-05	1.270475e-05	1.459137e-05	1.272037e-05	1.075699e-05	1.087083e-05	1.021014e-05	1.181873e-05	1.239494e-05	1.199535e-05	1.200637e-05	1.027866e-05	1.195726e-05	1.622361e-05	9.248379e-06	1.566881e-05	1.374036e-05	7.869353e-06	7.352159e-06	1.106159e-05	7.474626e-06	1.106825e-05	6.699107e-06	1.486677e-05	1.385111e-05	1.149598e-05	1.244160e-05	1.109094e-05	7.766014e-06	1.211890e-05	9.550604e-06	9.916907e-06	8.546773e-06	1.522957e-05	1.801651e-05	8.568478e-06	1.131061e-05	7.675756e-06	1.198778e-05	7.395688e-06	8.457043e-06	1.600425e-05	1.203230e-05	8.381451e-06	1.667830e-05	1.292836e-05	8.130232e-06	9.267883e-06	1.379820e-05	1.573462e-05	1.194528e-05	1.246671e-05	8.080266e-06	1.173866e-05	1.156742e-05	1.276663e-05	1.419073e-05	7.547683e-06	1.678135e-05	9.209204e-06	1.262663e-05	1.236484e-05	9.306598e-06	8.583953e-06	1.456205e-05	7.858070e-06	1.115880e-05	1.404106e-05	1.916098e-05	1.022371e-05	8.333745e-06	1.222883e-05	1.361586e-05	1.323326e-05	1.002887e-05	1.268327e-05	1.120226e-05	1.698152e-05	1.256094e-05	1.376598e-05	8.316765e-06	1.187240e-05	1.408151e-05	1.219806e-05	1.138266e-05	8.160388e-06	1.026344e-05	1.289922e-05	1.162080e-05	1.422255e-05	9.007888e-06	8.531087e-06	1.294190e-05	1.127115e-05	1.419637e-05	8.249861e-06	1.199279e-05	1.346090e-05	1.567898e-05	8.815804e-06	1.028354e-05	9.869164e-06	9.819966e-06	1.106046e-05	1.408085e-05	1.075631e-05	1.137652e-05	9.161787e-06	1.503543e-05	1.347986e-05	1.649463e-05	9.542792e-06	1.256384e-05	1.039312e-05	1.195210e-05	1.372004e-05	7.828715e-06	9.821597e-06	1.652103e-05	1.158374e-05	9.086728e-06	1.223733e-05	1.063847e-05	9.439646e-06	1.640719e-05	1.472029e-05	1.333402e-05	1.376017e-05	1.080537e-05	1.222317e-05	1.357547e-05	1.196457e-05	1.054637e-05	1.205767e-05	9.061661e-06	8.507449e-06	1.446054e-05	1.028377e-05	1.708248e-05	1.105277e-05	8.318153e-06	9.009583e-06	1.144947e-05	8.584320e-06	1.080553e-05	1.165185e-05	1.483370e-05	1.132505e-05	1.257852e-05	9.324195e-06	1.393025e-05	1.070056e-05	1.074540e-05	1.233826e-05	9.219785e-06	1.549992e-05	1.774627e-05	1.254062e-05	1.433494e-05	1.106769e-05	9.148060e-06	1.041247e-05	8.259448e-06	1.554117e-05	1.293478e-05	8.242601e-06	9.708967e-06	1.325766e-05	9.319391e-06	1.283323e-05	7.723865e-06	1.501329e-05	1.166677e-05	1.193965e-05	1.049420e-05	1.187433e-05	1.415051e-05	1.533824e-05	1.080442e-05	1.592652e-05	7.676261e-06	1.158850e-05	9.897999e-06	7.751471e-06	1.144450e-05	9.287288e-06	1.037000e-05	1.634467e-05	1.068335e-05	1.287863e-05	9.176624e-06	1.939879e-05	1.108202e-05	1.279907e-05	1.184954e-05	6.831432e-06	1.155597e-05	1.113974e-05	1.327284e-05	1.305878e-05	1.233409e-05	1.583985e-05	9.153518e-06	1.106317e-05	9.913227e-06	1.121791e-05	1.012359e-05	1.104148e-05	1.012396e-05	1.759513e-05	1.343156e-05	1.030560e-05	1.458261e-05	1.172810e-05	1.306837e-05	9.006367e-06	1.182304e-05	9.490290e-06	1.343546e-05	9.376975e-06	1.426230e-05	1.229919e-05	1.146976e-05	1.134891e-05	1.344045e-05	8.662644e-06	8.727919e-06	1.306280e-05	1.414541e-05	1.354409e-05	1.163689e-05	9.009583e-06	1.348555e-05	1.127106e-05	1.261305e-05	1.489947e-05	8.241990e-06	1.055769e-05	1.296164e-05	1.201696e-05	1.130466e-05	1.173495e-05	1.457877e-05	8.746234e-06	1.387595e-05	1.146982e-05	1.276382e-05	1.738246e-05	1.070065e-05	1.164259e-05	1.013066e-05	9.984135e-06	8.982666e-06	1.189950e-05	1.186022e-05	1.175193e-05	8.118014e-06	8.463422e-06	1.189411e-05	9.466906e-06	9.220092e-06	1.180495e-05	1.134236e-05	1.154821e-05	1.376530e-05	1.359051e-05	8.888126e-06	1.049373e-05	1.198692e-05	7.107607e-06	9.994686e-06	1.192894e-05	1.632434e-05	7.407960e-06	1.452568e-05	1.194361e-05	1.149620e-05	1.565138e-05	1.583891e-05	1.625053e-05	1.145352e-05	1.112186e-05	1.060573e-05	1.172481e-05	1.195879e-05	1.109521e-05	1.076393e-05	1.209090e-05	6.871217e-06	9.709606e-06	8.923362e-06	1.072322e-05	9.103533e-06	1.100453e-05	1.169194e-05	9.691745e-06	1.226895e-05	1.425846e-05	9.681771e-06	1.087262e-05	1.317007e-05	1.316312e-05	1.513758e-05	1.234834e-05	1.040690e-05	9.300461e-06	1.284104e-05	1.264995e-05	1.561641e-05	1.497648e-05	1.037677e-05	9.112549e-06	1.292826e-05	1.446403e-05	1.251752e-05	1.010628e-05	6.664740e-06	1.284009e-05	9.533508e-06	9.446776e-06	1.205878e-05	9.095888e-06	8.858462e-06	9.785364e-06	8.081357e-06	8.937687e-06	7.275659e-06	1.054131e-05	1.146503e-05	1.385202e-05	1.127520e-05	9.327557e-06	1.020227e-05	9.258478e-06	1.072528e-05	1.151092e-05	1.111243e-05	1.122308e-05	1.402046e-05	7.534191e-06	1.776859e-05	1.003325e-05	9.849174e-06	1.419156e-05	1.347147e-05	9.814325e-06	1.078365e-05	1.018644e-05	1.590210e-05	1.303720e-05	1.193841e-05	1.316515e-05	8.815152e-06	9.312918e-06	9.850925e-06	1.065186e-05	7.535766e-06	9.223591e-06	1.466205e-05	7.690994e-06	1.013246e-05	1.215163e-05	7.142406e-06	9.865368e-06	1.494095e-05	8.982488e-06	1.324994e-05	1.433559e-05	9.260070e-06	1.019591e-05	9.019502e-06	1.240911e-05	1.130333e-05	8.638754e-06	1.462141e-05	1.288477e-05	1.153266e-05	1.227339e-05	1.320896e-05	9.015170e-06	9.576931e-06	1.087370e-05	1.429977e-05	1.143215e-05	1.167286e-05	1.140438e-05	9.632366e-06	1.444096e-05	1.107176e-05	1.484249e-05	9.391971e-06	1.463676e-05	1.226886e-05	1.530489e-05	1.546237e-05	1.245731e-05	1.115040e-05	1.190876e-05	8.552886e-06	9.424012e-06	1.250301e-05	9.854278e-06	9.134145e-06	8.758358e-06	8.728806e-06	9.253683e-06	1.080366e-05	1.266211e-05	1.294287e-05	1.306050e-05	1.207701e-05	1.223424e-05	8.970876e-06	1.422533e-05	1.429130e-05	1.386108e-05	1.628170e-05	1.027038e-05	8.706107e-06	6.906174e-06	1.457094e-05	1.447040e-05	1.099509e-05	8.503653e-06	1.432554e-05	1.125505e-05	1.007629e-05	1.188032e-05	9.533237e-06	1.239011e-05	1.303050e-05	1.498791e-05	1.061995e-05	8.551674e-06	1.338548e-05	1.339714e-05	1.287318e-05	1.355977e-05	7.473629e-06	8.260326e-06	1.070949e-05	1.311560e-05	1.479677e-05	1.230383e-05	1.039338e-05	1.666944e-05	1.444962e-05	1.105480e-05	1.036842e-05	8.267513e-06	1.263259e-05	7.702942e-06	1.177423e-05	8.711667e-06	9.963202e-06	1.146510e-05	9.308635e-06	1.449858e-05	9.026321e-06	1.151142e-05	1.437978e-05	9.802549e-06	1.634026e-05	1.007266e-05	1.095436e-05	1.203493e-05	1.100841e-05	9.837733e-06	8.947869e-06	8.571576e-06	1.050078e-05	9.070219e-06	1.397748e-05	9.885698e-06	1.181204e-05	1.066011e-05	1.071436e-05	1.020487e-05	1.414605e-05	1.196303e-05	1.008537e-05	1.332507e-05	1.704358e-05	1.114351e-05	1.227895e-05	1.314917e-05	1.366170e-05	1.304298e-05	1.739730e-05	8.342239e-06	1.154906e-05	1.271846e-05	1.262854e-05	1.254243e-05	1.420959e-05	1.124564e-05	1.431296e-05	1.082978e-05	1.191924e-05	1.058000e-05	1.669234e-05	8.362743e-06	1.138596e-05	9.213065e-06	1.249360e-05	1.306812e-05	1.241578e-05	1.772521e-05	1.237221e-05	1.152955e-05	1.114742e-05	1.364895e-05	1.694170e-05	1.163610e-05	9.839777e-06	1.477798e-05	9.800209e-06	9.739641e-06	8.656962e-06	1.035888e-05	1.163369e-05	9.903870e-06	1.524094e-05	1.353938e-05	9.624137e-06	1.218715e-05	5.901166e-06	1.301140e-05	9.682756e-06	1.159861e-05	1.047982e-05	8.700101e-06	9.458217e-06	1.119908e-05	9.955787e-06	1.092722e-05	7.987386e-06	1.159469e-05	1.267266e-05	1.068742e-05	1.370659e-05	1.439202e-05	1.039718e-05	1.365229e-05	1.477145e-05	7.650763e-06	1.266687e-05	9.049456e-06	9.347312e-06	1.208913e-05	1.581460e-05	1.101443e-05	8.988066e-06	1.169110e-05	1.229568e-05	1.423039e-05	1.701278e-05	7.667309e-06	1.106656e-05	7.427538e-06	9.457993e-06	1.116486e-05	1.162908e-05	8.983271e-06	6.450091e-06	1.430478e-05	1.742870e-05	8.654915e-06	7.160921e-06	9.529547e-06	1.199526e-05	1.518686e-05	1.079442e-05	1.434625e-05	9.135455e-06	1.203663e-05	8.010918e-06	8.946209e-06	1.228166e-05	1.013477e-05	1.170998e-05	7.844105e-06	1.153177e-05	1.363578e-05	1.191700e-05	1.221821e-05	1.072958e-05	1.072108e-05	1.250664e-05	1.324963e-05	8.748450e-06	1.690604e-05	1.517759e-05	1.222293e-05	1.146309e-05	9.624579e-06	8.972329e-06	1.248486e-05	1.061634e-05	1.027649e-05	1.290780e-05	1.212945e-05	1.063005e-05	9.665803e-06	1.398002e-05	1.042252e-05	1.067030e-05	1.034312e-05	1.626129e-05	8.702128e-06	1.511217e-05	9.666907e-06	8.491379e-06	1.468882e-05	1.594639e-05	1.131573e-05	8.791407e-06	1.066137e-05	1.206953e-05	1.270488e-05	9.645961e-06	7.331689e-06	6.734824e-06	1.052951e-05	9.555426e-06	1.252767e-05	1.404549e-05	1.290184e-05	1.115403e-05	7.406007e-06	7.580143e-06	1.319351e-05	1.064980e-05	1.230101e-05	1.207386e-05	1.419384e-05	9.037010e-06	1.454255e-05	1.241671e-05	1.075576e-05	1.359693e-05	1.630319e-05	1.333469e-05	7.908311e-06	7.792515e-06	1.219170e-05	8.120864e-06	9.577782e-06	1.132155e-05	7.790893e-06	1.176285e-05	1.259523e-05	8.814666e-06	8.908231e-06	7.904642e-06	1.139916e-05	1.377624e-05	9.346471e-06	1.701691e-05	1.134001e-05	1.001154e-05	8.152872e-06	1.370327e-05	1.709973e-05	1.135235e-05	1.112070e-05	8.398772e-06	1.163663e-05	7.998075e-06	1.149597e-05	1.131256e-05	1.057003e-05	9.077289e-06	1.030175e-05	1.762821e-05	1.011504e-05	1.144849e-05	9.687473e-06	1.119552e-05	8.346857e-06	9.111307e-06	6.952588e-06	1.063291e-05	1.596400e-05	1.537424e-05	1.007404e-05	1.110297e-05	1.153706e-05	8.063167e-06	1.084416e-05	1.020438e-05	9.476583e-06	1.001955e-05	7.541676e-06	1.230690e-05	9.583011e-06	1.398812e-05	1.675674e-05	1.027652e-05	1.468336e-05	1.294258e-05	1.384974e-05	1.099699e-05	1.175183e-05	9.195684e-06	1.118595e-05	1.327370e-05	1.441104e-05	1.125877e-05	1.476584e-05	8.722141e-06	1.511953e-05	8.590794e-06	1.189218e-05	7.834686e-06	1.166266e-05	8.240992e-06	1.586957e-05	1.585318e-05	1.533193e-05	1.092921e-05	1.125874e-05	1.076882e-05	9.814574e-06	1.576213e-05	1.498774e-05	1.213868e-05	1.362438e-05	8.884492e-06	1.193205e-05	1.199406e-05	1.649444e-05	7.618310e-06	</DataArray>
 </PointData>
 <CellData>